;
;	File 'topol.top' was generated
;	By user: unknown (3262814)
;	On host: sc068
;	At date: Mon Aug 31 08:11:23 2026
;
;	This is a standalone topology file
;
;	Created by:
;	              :-) GROMACS - gmx pdb2gmx, 2022.5-plumed_2.8.2 (-:
;	
;	Executable:   /scratch/mheyden1/software/gromacs-2022.5/bin/gmx_plumed
;	Data prefix:  /scratch/mheyden1/software/gromacs-2022.5
;	Working dir:  /tmp/tmp.9mDv45xx41
;	Command line:
;	  gmx pdb2gmx -f conf.gro -ff amber99sb-ildn -water none -ignh -p topol.top
;	Force field was read from the standard GROMACS share directory.
;

; Include forcefield parameters
#include "amber99sb-ildn.ff/forcefield.itp"

[ moleculetype ]
; Name            nrexcl
Protein             3

[ atoms ]
;   nr       type  resnr residue  atom   cgnr     charge       mass  typeB    chargeB      massB
; residue   0 ACE rtp ACE  q  0.0
1 HC 0 ACE HH31 2 0.1123 1.008
2 CT 0 ACE CH3 1 -0.3662 12.01
     3         HC      0    ACE   HH32      3     0.1123      1.008
     4         HC      0    ACE   HH33      4     0.1123      1.008
     5          C      0    ACE      C      5     0.5972      12.01
     6          O      0    ACE      O      6    -0.5679         16   ; qtot 0
; residue   1 ALA rtp ALA  q  0.0
     7          N      1    ALA      N      7    -0.4157      14.01
     8          H      1    ALA      H      8     0.2719      1.008
     9         CT      1    ALA     CA      9     0.0337      12.01
    10         H1      1    ALA     HA     10     0.0823      1.008
    11         CT      1    ALA     CB     11    -0.1825      12.01
    12         HC      1    ALA    HB1     12     0.0603      1.008
    13         HC      1    ALA    HB2     13     0.0603      1.008
    14         HC      1    ALA    HB3     14     0.0603      1.008
    15          C      1    ALA      C     15     0.5973      12.01
    16          O      1    ALA      O     16    -0.5679         16   ; qtot 0
; residue   2 NME rtp NME  q  0.0
    17          N      2    NME      N     17    -0.4157      14.01
    18          H      2    NME      H     18     0.2719      1.008
    19         CT      2    NME    CH3     19     -0.149      12.01
    20         H1      2    NME   HH31     20     0.0976      1.008
    21         H1      2    NME   HH32     21     0.0976      1.008
    22         H1      2    NME   HH33     22     0.0976      1.008   ; qtot 0

[ bonds ]
;  ai    aj funct            c0            c1            c2            c3
2 1 2
2 3 2
2 4 2
2 5 2
5 6 2
5 7 2
7 8 2
7 9 2
9 10 2
9 11 2
9 15 2
11 12 2
11 13 2
11 14 2
15 16 2
15 17 2
17 18 2
17 19 2
19 20 2
19 21 2
19 22 2

[ pairs ]
;  ai    aj funct            c0            c1            c2            c3
2 8 2
2 9 2
1 6 2
1 7 2
3 6 2
3 7 2
4 6 2
4 7 2
5 10 2
5 11 2
5 15 2
6 8 2
6 9 2
7 12 2
7 13 2
7 14 2
7 16 2
7 17 2
8 10 2
8 11 2
8 15 2
9 18 2
9 19 2
10 12 2
10 13 2
10 14 2
10 16 2
10 17 2
11 16 2
11 17 2
12 15 2
13 15 2
14 15 2
15 20 2
15 21 2
15 22 2
16 18 2
16 19 2
18 20 2
18 21 2
18 22 2

[ angles ]
;  ai    aj    ak funct            c0            c1            c2            c3
1 2 3 2
1 2 4 2
1 2 5 2
3 2 4 2
3 2 5 2
4 2 5 2
2 5 6 2
2 5 7 2
6 5 7 2
5 7 8 2
5 7 9 2
8 7 9 2
7 9 10 2
7 9 11 2
7 9 15 2
10 9 11 2
10 9 15 2
11 9 15 2
9 11 12 2
9 11 13 2
9 11 14 2
12 11 13 2
12 11 14 2
13 11 14 2
9 15 16 2
9 15 17 2
16 15 17 2
15 17 18 2
15 17 19 2
18 17 19 2
17 19 20 2
17 19 21 2
17 19 22 2
20 19 21 2
20 19 22 2
21 19 22 2

[ dihedrals ]
;  ai    aj    ak    al funct            c0            c1            c2            c3            c4            c5
1 2 5 6 9
1 2 5 7 9
3 2 5 6 9
3 2 5 7 9
4 2 5 6 9
4 2 5 7 9
2 5 7 8 9
2 5 7 9 9
6 5 7 8 9
6 5 7 9 9
5 7 9 10 9
5 7 9 11 9
5 7 9 15 9
8 7 9 10 9
8 7 9 11 9
8 7 9 15 9
7 9 11 12 9
7 9 11 13 9
7 9 11 14 9
10 9 11 12 9
10 9 11 13 9
10 9 11 14 9
15 9 11 12 9
15 9 11 13 9
15 9 11 14 9
7 9 15 16 9
7 9 15 17 9
10 9 15 16 9
10 9 15 17 9
11 9 15 16 9
11 9 15 17 9
9 15 17 18 9
9 15 17 19 9
16 15 17 18 9
16 15 17 19 9
15 17 19 20 9
15 17 19 21 9
15 17 19 22 9
18 17 19 20 9
18 17 19 21 9
18 17 19 22 9

[ dihedrals ]
;  ai    aj    ak    al funct            c0            c1            c2            c3
2 7 5 6 4
5 9 7 8 4
9 17 15 16 4
15 19 17 18 4

; Include Position restraint file
#ifdef POSRES
#include "posre.itp"
#endif

[ system ]
; Name
GRowing Old MAkes el Chrono Sweat

[ molecules ]
; Compound        #mols
Protein             1
